 ANIMSTEPS  10
 CRYSTAL 
 PRIMVEC 
  5.6240019798  0.0000000000  0.0000000000
 -2.8120009899  4.8705285855  0.0000000000
  0.0000000000  0.0000000000 28.7759351730
 PRIMCOORD   1
   29  1
 O    0.0000000000    1.6858480250   15.0376607410    0.0000000000   -0.0000734457   -0.0001678688
Pt    0.0000000000    0.0000000000    0.0000000000    0.0000000000    0.0000000000   -0.0000000000
Pt    0.0000000000    0.0111324760   13.8567783490    0.0000000000   -0.0001497594   -0.0003974273
Pt    0.0000000000    3.2470190000    4.5919790000    0.0000000000   -0.0000000000   -0.0000000000
Pt    2.8120010000    1.6698190200    9.1824258350    0.0000000000   -0.0009154351   -0.0003569865
Pt    1.4060000000    4.0587730000    2.2959890000   -0.0000000000   -0.0000000000    0.0000000000
Pt   -1.4065409110    2.4524846800    6.8940973880    0.0000221382    0.0002447563   -0.0003456748
Pt    1.4055002400    0.8672745980   11.4556733950   -0.0005056778   -0.0005465628    0.0002701184
Pt    0.0000000000    1.6235100000    2.2959890000    0.0000000000   -0.0000000000    0.0000000000
Pt    2.8120010000    0.0167043770    6.8591396370    0.0000000000   -0.0000103910    0.0003532683
Pt    2.8120010000    3.3023446040   11.5960999090    0.0000000000    0.0002997529   -0.0003939745
Pt    4.2180010000    0.8117550000    4.5919790000    0.0000000000    0.0000000000   -0.0000000000
Pt   -1.4106092070    4.0945012190    9.1820795620   -0.0000461730    0.0002255675    0.0002898281
Pt    1.4060000000    2.4352640000    0.0000000000   -0.0000000000   -0.0000000000   -0.0000000000
Pt    1.4516610220    2.5233910910   13.8583366580   -0.0004823045   -0.0003897087   -0.0000429672
Pt   -1.4060000000    4.0587730000    2.2959890000    0.0000000000   -0.0000000000    0.0000000000
Pt    1.4065409110    2.4524846800    6.8940973880   -0.0000221382    0.0002447563   -0.0003456748
Pt    4.2185017600    0.8672745980   11.4556733950    0.0005056778   -0.0005465628    0.0002701184
Pt    2.8120010000    3.2470190000    4.5919780000    0.0000000000    0.0000000000   -0.0000000000
Pt    0.0000000000    1.6628734630    9.1884717500    0.0000000000   -0.0006016554   -0.0002629106
Pt    2.8120010000    0.0000000000    0.0000000000    0.0000000000    0.0000000000   -0.0000000000
Pt    2.8120010000    0.0611741310   13.7269690940    0.0000000000    0.0000889100   -0.0004546996
Pt    1.4060000000    0.8117550000    4.5919780000   -0.0000000000    0.0000000000   -0.0000000000
Pt    1.4106082070    4.0945012190    9.1820785620    0.0000461730    0.0002255675    0.0002898281
Pt   -1.4060000000    2.4352640000    0.0000000000    0.0000000000   -0.0000000000   -0.0000000000
Pt   -1.4516610220    2.5233910910   13.8583366580    0.0004823045   -0.0003897087   -0.0000429672
Pt    0.0000000000    0.0181358860    6.8946206700    0.0000000000   -0.0002750238   -0.0004024567
Pt    0.0000000000    3.2966515970   11.4568862960    0.0000000000    0.0001782193    0.0000897285
Pt    2.8120010000    1.6235100000    2.2959890000    0.0000000000   -0.0000000000    0.0000000000
 PRIMCOORD   2
   29  1
 O    0.2198707518    1.4894882920   15.1012523072   -0.0254119239    0.0152646959   -0.0114979864
Pt    0.0000000000    0.0000000000    0.0000000000   -0.0000000000    0.0000000000   -0.0000000000
Pt    0.0688404839   -0.1013555305   13.8610766597    0.0039445611   -0.0029048462    0.0002604542
Pt    0.0000000000    3.2470190573    4.5919789583    0.0000000000   -0.0000000000   -0.0000000000
Pt    2.8088606181    1.6631625712    9.1784397183   -0.0000660999   -0.0006593298    0.0002584088
Pt    1.4059999970    4.0587730536    2.2959890056   -0.0000000000   -0.0000000000    0.0000000000
Pt   -1.4057835773    2.4558905364    6.8892576529   -0.0001428188   -0.0001751867    0.0006009079
Pt    1.4023491017    0.8314566084   11.4526676617    0.0014782887   -0.0013720460    0.0000176417
Pt    0.0000000000    1.6235100045    2.2959890056   -0.0000000000   -0.0000000000    0.0000000000
Pt    2.8162942006    0.0176307250    6.8595196692   -0.0004553531    0.0000309230   -0.0001113618
Pt    2.8097647976    3.2632483604   11.5976589736    0.0040940122   -0.0030212504    0.0021208707
Pt    4.2180009620    0.8117550022    4.5919789583    0.0000000000    0.0000000000   -0.0000000000
Pt   -1.4134158910    4.0915732448    9.1770378905   -0.0001761665   -0.0008839322    0.0001425704
Pt    1.4060000283    2.4352640551    0.0000000000   -0.0000000000   -0.0000000000   -0.0000000000
Pt    1.5221453688    2.4169291054   13.8580829943    0.0052594755   -0.0009744916   -0.0001089429
Pt   -1.4060000283    4.0587730536    2.2959890056    0.0000000000   -0.0000000000    0.0000000000
Pt    1.4082355467    2.4547496762    6.8921483208   -0.0003079261   -0.0001081271    0.0004924128
Pt    4.2203871405    0.8305513932   11.4514751984    0.0015973291   -0.0016729562    0.0001101781
Pt    2.8120009338    3.2470190573    4.5919780115   -0.0000000000    0.0000000000   -0.0000000000
Pt   -0.0048722408    1.6593578976    9.1823980775   -0.0001293498   -0.0008032935    0.0002775780
Pt    2.8120009963    0.0000000000    0.0000000000    0.0000000000    0.0000000000   -0.0000000000
Pt    2.8686255876   -0.0400653227   13.7233019436    0.0030922576   -0.0010511412    0.0001900985
Pt    1.4060000283    0.8117550022    4.5919780115   -0.0000000000    0.0000000000   -0.0000000000
Pt    1.4112455507    4.0888937093    9.1834498521   -0.0001032485   -0.0008235841   -0.0006627492
Pt   -1.4060001529    2.4352640551    0.0000000000    0.0000000000   -0.0000000000   -0.0000000000
Pt   -1.3476292177    2.3944644193   13.8514921746    0.0049475495   -0.0020797671    0.0071755143
Pt    0.0020595562    0.0209401776    6.8922640054   -0.0002322308   -0.0002175488    0.0003646950
Pt   -0.0008992210    3.2635643372   11.4493560640    0.0018779440   -0.0012224245    0.0002610090
Pt    2.8120009338    1.6235100045    2.2959890056   -0.0000000000   -0.0000000000    0.0000000000
 PRIMCOORD   3
   29  1
 O    0.5263316868    1.3071139652   15.2232561710   -0.0206935607    0.0122549988   -0.0024654658
Pt    0.0000000000    0.0000000000    0.0000000000   -0.0000000000    0.0000000000   -0.0000000000
Pt    0.0345750749   -0.0668737439   13.8652589060    0.0045335769   -0.0027970512   -0.0001769103
Pt    0.0000000000    3.2470190617    4.5919789551    0.0000000000   -0.0000000000   -0.0000000000
Pt    2.8061791155    1.6643926774    9.1735972264   -0.0002854854   -0.0006258921    0.0002477928
Pt    1.4059999968    4.0587730577    2.2959890060    0.0000000000   -0.0000000000    0.0000000000
Pt   -1.4050962265    2.4558882469    6.8868024711   -0.0001592693   -0.0001876575   -0.0001283362
Pt    1.3849270797    0.8409460817   11.4467297630    0.0006654815   -0.0008786340    0.0004330317
Pt    0.0000000000    1.6235100048    2.2959890060   -0.0000000000   -0.0000000000    0.0000000000
Pt    2.8197256565    0.0159840244    6.8627170977   -0.0001815557   -0.0001784750   -0.0007022293
Pt    2.7674202312    3.2869461615   11.5714444104    0.0014216620   -0.0014437330    0.0020331955
Pt    4.2180009592    0.8117550024    4.5919789551    0.0000000000    0.0000000000   -0.0000000000
Pt   -1.4158197386    4.0935735527    9.1727136425   -0.0002827639   -0.0005497763    0.0002238759
Pt    1.4060000304    2.4352640593    0.0000000000   -0.0000000000   -0.0000000000   -0.0000000000
Pt    1.4687642884    2.4203892914   13.8625490046    0.0057238205   -0.0014476323   -0.0005263966
Pt   -1.4060000304    4.0587730577    2.2959890060    0.0000000000    0.0000000000    0.0000000000
Pt    1.4091885381    2.4539601232    6.8899184165   -0.0001963843   -0.0002174206    0.0001630875
Pt    4.2018924033    0.8412852720   11.4496451782    0.0006157236   -0.0006647986    0.0000924888
Pt    2.8120009287    3.2470190617    4.5919780124   -0.0000000000    0.0000000000   -0.0000000000
Pt   -0.0089893360    1.6620497935    9.1780756375   -0.0003546355   -0.0005232046    0.0002231138
Pt    2.8120009960    0.0000000000    0.0000000000    0.0000000000   -0.0000000000   -0.0000000000
Pt    2.8452694811   -0.0324826180   13.7225005265    0.0035785203   -0.0012291732   -0.0009152621
Pt    1.4060000304    0.8117550024    4.5919780124   -0.0000000000    0.0000000000   -0.0000000000
Pt    1.4072664082    4.0911875965    9.1869349498   -0.0001199858   -0.0006994149   -0.0000369386
Pt   -1.4060001646    2.4352640593    0.0000000000    0.0000000000   -0.0000000000   -0.0000000000
Pt   -1.3967608505    2.4163555703   13.7778416354    0.0041877246   -0.0016394299    0.0032773573
Pt    0.0032100561    0.0207712917    6.8899385074   -0.0001279421   -0.0002055733    0.0001261135
Pt   -0.0211394450    3.2718420800   11.4490146557    0.0007425686   -0.0007613553    0.0001436465
Pt    2.8120009287    1.6235100048    2.2959890060   -0.0000000000   -0.0000000000    0.0000000000
 PRIMCOORD   4
   29  1
 O    0.8443365974    1.1202775024   15.2512649696   -0.0002892115    0.0004656657    0.0001731554
Pt    0.0000000000    0.0000000000    0.0000000000    0.0000000000    0.0000000000   -0.0000000000
Pt   -0.0229299278   -0.0259952848   13.8724619592    0.0010070533    0.0000039145    0.0001148620
Pt    0.0000000000    3.2470190636    4.5919789537    0.0000000000   -0.0000000000   -0.0000000000
Pt    2.8029573684    1.6676150817    9.1713745320   -0.0007327237   -0.0003991353   -0.0000556581
Pt    1.4059999967    4.0587730595    2.2959890062    0.0000000000   -0.0000000000    0.0000000000
Pt   -1.4049984555    2.4563755224    6.8872223667   -0.0002910526   -0.0001986508    0.0002473332
Pt    1.3722449862    0.8499636711   11.4411518398   -0.0006531685   -0.0005796533   -0.0003534805
Pt    0.0000000000    1.6235100050    2.2959890062    0.0000000000   -0.0000000000    0.0000000000
Pt    2.8203923124    0.0161762127    6.8699638960   -0.0002736613   -0.0001317441    0.0001225240
Pt    2.7456521319    3.3011243264   11.5477191748   -0.0001650483   -0.0001692104    0.0000773787
Pt    4.2180009579    0.8117550025    4.5919789537    0.0000000000    0.0000000000   -0.0000000000
Pt   -1.4197064544    4.0955856194    9.1707053310   -0.0006906519   -0.0002903683    0.0001631015
Pt    1.4060000314    2.4352640611    0.0000000000   -0.0000000000   -0.0000000000   -0.0000000000
Pt    1.4012205297    2.4432220736   13.8688137360    0.0016383639    0.0000929314   -0.0003714265
Pt   -1.4060000314    4.0587730595    2.2959890062   -0.0000000000    0.0000000000    0.0000000000
Pt    1.4085818431    2.4550209245    6.8859218057   -0.0003098912   -0.0002341024    0.0003123604
Pt    4.1871173856    0.8466873906   11.4545564191   -0.0002480174   -0.0002456280    0.0001273753
Pt    2.8120009265    3.2470190636    4.5919780128    0.0000000000    0.0000000000   -0.0000000000
Pt   -0.0132170485    1.6652526839    9.1772307291   -0.0008301107   -0.0003442701    0.0001657261
Pt    2.8120009959    0.0000000000    0.0000000000    0.0000000000    0.0000000000   -0.0000000000
Pt    2.8030705302   -0.0145145086   13.7397731652    0.0014539769    0.0002695186   -0.0001747336
Pt    1.4060000314    0.8117550025    4.5919780128   -0.0000000000    0.0000000000   -0.0000000000
Pt    1.4020462167    4.0946646515    9.1919402537   -0.0007764553   -0.0005384705    0.0003197087
Pt   -1.4060001697    2.4352640611    0.0000000000    0.0000000000   -0.0000000000   -0.0000000000
Pt   -1.4485324793    2.4413612996   13.7359933515    0.0009971300    0.0000056247    0.0000757846
Pt    0.0021785557    0.0208332414    6.8856078024   -0.0002736868   -0.0002192042    0.0002328052
Pt   -0.0326181692    3.2816584348   11.4558658535   -0.0003300335   -0.0000575501   -0.0000260066
Pt    2.8120009265    1.6235100050    2.2959890062   -0.0000000000   -0.0000000000    0.0000000000
 PRIMCOORD   5
   29  1
 O    1.1347648017    0.9504117194   15.1443160217    0.0163821377   -0.0096037430   -0.0068355521
Pt    0.0000000000    0.0000000000    0.0000000000    0.0000000000    0.0000000000   -0.0000000000
Pt   -0.1022388551   -0.0104191589   13.8636356877   -0.0033163137    0.0014685648    0.0000859371
Pt    0.0000000000    3.2470190662    4.5919789518   -0.0000000000   -0.0000000000   -0.0000000000
Pt    2.8048094098    1.6680341022    9.1715795688   -0.0004922898   -0.0002921021   -0.0000908640
Pt    1.4059999966    4.0587730619    2.2959890064   -0.0000000000   -0.0000000000    0.0000000000
Pt   -1.4040952165    2.4567093349    6.8888229089   -0.0002188129   -0.0002177922    0.0001600544
Pt    1.3674868446    0.8547703493   11.4425702267   -0.0012444955   -0.0001530199   -0.0010408195
Pt    0.0000000000    1.6235100052    2.2959890064    0.0000000000   -0.0000000000    0.0000000000
Pt    2.8184731063    0.0179293004    6.8780667146   -0.0003631655   -0.0000104773    0.0004032210
Pt    2.7534296199    3.2991084681   11.5111891818    0.0000295942   -0.0000011996   -0.0023094152
Pt    4.2180009561    0.8117550026    4.5919789518    0.0000000000    0.0000000000   -0.0000000000
Pt   -1.4176771104    4.0954376732    9.1729673278   -0.0004071028   -0.0004140572    0.0002232961
Pt    1.4060000327    2.4352640636    0.0000000000   -0.0000000000   -0.0000000000   -0.0000000000
Pt    1.3404590857    2.4975245380   13.8577321567   -0.0025579682    0.0025641066   -0.0003447550
Pt   -1.4060000327    4.0587730619    2.2959890064   -0.0000000000    0.0000000000    0.0000000000
Pt    1.4080132179    2.4578202106    6.8836885303   -0.0002069550   -0.0001348800   -0.0000040486
Pt    4.1774398382    0.8435866142   11.4740747267   -0.0009124395   -0.0001078268    0.0010846178
Pt    2.8120009235    3.2470190662    4.5919780133    0.0000000000    0.0000000000   -0.0000000000
Pt   -0.0123033420    1.6670965947    9.1773620574   -0.0008150922   -0.0001885064    0.0001168860
Pt    2.8120009957    0.0000000000    0.0000000000   -0.0000000000    0.0000000000   -0.0000000000
Pt    2.7218401473    0.0199413018   13.8291792916   -0.0035363044    0.0025694741    0.0049362958
Pt    1.4060000327    0.8117550026    4.5919780133   -0.0000000000    0.0000000000   -0.0000000000
Pt    1.3992482161    4.0987914882    9.1977567574   -0.0009218313   -0.0004211423    0.0009158751
Pt   -1.4060001767    2.4352640636    0.0000000000    0.0000000000    0.0000000000   -0.0000000000
Pt   -1.4790657371    2.4449192717   13.7411278191   -0.0009940326    0.0017112784   -0.0001316025
Pt    0.0001976719    0.0201217430    6.8828051801   -0.0002977853   -0.0002499397   -0.0002421221
Pt   -0.0329133287    3.2954694089   11.4811452534   -0.0003612835    0.0007978531    0.0011406905
Pt    2.8120009235    1.6235100052    2.2959890064   -0.0000000000   -0.0000000000    0.0000000000
 PRIMCOORD   6
   29  1
 O    1.3311200662    0.6233469122   15.1433992417   -0.0003278126    0.0186511125   -0.0070367442
Pt    0.0000000000    0.0000000000    0.0000000000    0.0000000000    0.0000000000   -0.0000000000
Pt   -0.1212753586    0.0256570759   13.8659897075   -0.0005201505   -0.0036950002    0.0006304124
Pt    0.0000000000    3.2470190883    4.5919789358   -0.0000000000    0.0000000000   -0.0000000000
Pt    2.8080648384    1.6645940747    9.1720992287   -0.0001491244   -0.0004852064   -0.0002345610
Pt    1.4059999954    4.0587730825    2.2959890086   -0.0000000000   -0.0000000000    0.0000000000
Pt   -1.4051869693    2.4604958273    6.8891643222   -0.0001543284   -0.0002329298   -0.0003488338
Pt    1.3716356471    0.8504003353   11.4428828903   -0.0000038826   -0.0010243382   -0.0003513510
Pt    0.0000000000    1.6235100069    2.2959890086    0.0000000000   -0.0000000000    0.0000000000
Pt    2.8144219755    0.0242905611    6.8849065907   -0.0000326664   -0.0004084762   -0.0006617212
Pt    2.7673188174    3.2902827049   11.4722913975   -0.0001480737   -0.0011737920    0.0014174931
Pt    4.2180009415    0.8117550034    4.5919789358   -0.0000000000    0.0000000000   -0.0000000000
Pt   -1.4134626311    4.0955561331    9.1769146659   -0.0001055408   -0.0008040017    0.0000607553
Pt    1.4060000436    2.4352640848    0.0000000000   -0.0000000000   -0.0000000000   -0.0000000000
Pt    1.3162766114    2.4576389270   13.8314006044    0.0003208862   -0.0045001239    0.0054176355
Pt   -1.4060000436    4.0587730825    2.2959890086   -0.0000000000   -0.0000000000    0.0000000000
Pt    1.4062082568    2.4647894071    6.8773427489   -0.0001227243   -0.0003526603   -0.0002146699
Pt    4.1817089986    0.8294303238   11.5122191353   -0.0000507905   -0.0001025130   -0.0017290098
Pt    2.8120008980    3.2470190883    4.5919780178    0.0000000000    0.0000000000   -0.0000000000
Pt   -0.0124147642    1.6645736584    9.1736835630   -0.0002176072   -0.0003934975    0.0001064712
Pt    2.8120009943    0.0000000000    0.0000000000   -0.0000000000    0.0000000000   -0.0000000000
Pt    2.7721818630    0.0222047567   13.8565754524    0.0010430479   -0.0037862741    0.0002653981
Pt    1.4060000436    0.8117550034    4.5919780178    0.0000000000    0.0000000000   -0.0000000000
Pt    1.3978757554    4.1030923920    9.1971498398   -0.0004193965   -0.0007295897    0.0008474760
Pt   -1.4060002356    2.4352640848    0.0000000000   -0.0000000000    0.0000000000   -0.0000000000
Pt   -1.4957564965    2.4781784792   13.7414174290    0.0006837665   -0.0024082648    0.0001948747
Pt   -0.0013479852    0.0242258305    6.8829539615   -0.0003050380   -0.0004169395   -0.0007662172
Pt   -0.0259796030    3.2883471842   11.4809653815    0.0008625961   -0.0006804934    0.0018520534
Pt    2.8120008980    1.6235100069    2.2959890086   -0.0000000000   -0.0000000000    0.0000000000
 PRIMCOORD   7
   29  1
 O    1.3332820377    0.2889591662   15.2528981611    0.0003715589    0.0000775340   -0.0002235284
Pt    0.0000000000    0.0000000000    0.0000000000    0.0000000000   -0.0000000000   -0.0000000000
Pt   -0.0939930813    0.1014566926   13.8763704200    0.0005584039    0.0004417759    0.0003434215
Pt    0.0000000000    3.2470190909    4.5919789339   -0.0000000000    0.0000000000   -0.0000000000
Pt    2.8068730276    1.6633359021    9.1721836664   -0.0003937262   -0.0006819105    0.0002103020
Pt    1.4059999953    4.0587730850    2.2959890088   -0.0000000000   -0.0000000000    0.0000000000
Pt   -1.4060041559    2.4601377640    6.8872807844   -0.0001818563   -0.0002268089   -0.0000285671
Pt    1.3700617790    0.8569379888   11.4420358118   -0.0003347394   -0.0005502128   -0.0001127146
Pt    0.0000000000    1.6235100071    2.2959890088    0.0000000000   -0.0000000000    0.0000000000
Pt    2.8120237182    0.0264243134    6.8864913913   -0.0002341986   -0.0003107856   -0.0000319603
Pt    2.7749115850    3.2979632923   11.4531998473   -0.0000548490   -0.0006493683    0.0003472795
Pt    4.2180009398    0.8117550035    4.5919789339   -0.0000000000    0.0000000000   -0.0000000000
Pt   -1.4155230972    4.0959427911    9.1765521304   -0.0004353597   -0.0009537358    0.0004293460
Pt    1.4060000448    2.4352640873    0.0000000000   -0.0000000000    0.0000000000   -0.0000000000
Pt    1.3287902001    2.5454529197   13.7410577757    0.0010639831    0.0003423670    0.0003891524
Pt   -1.4060000448    4.0587730850    2.2959890088   -0.0000000000   -0.0000000000    0.0000000000
Pt    1.4058049325    2.4673008815    6.8689632032   -0.0002003160   -0.0001933123   -0.0001789145
Pt    4.1796082987    0.8228773677   11.5491554663   -0.0001062638   -0.0003470929    0.0003789711
Pt    2.8120008950    3.2470190909    4.5919780183    0.0000000000    0.0000000000   -0.0000000000
Pt   -0.0132376562    1.6627420343    9.1712968741   -0.0005267857   -0.0006506104    0.0003664948
Pt    2.8120009941    0.0000000000    0.0000000000   -0.0000000000   -0.0000000000   -0.0000000000
Pt    2.7559110154    0.1021114689   13.8694430415    0.0011141504    0.0008252339    0.0001439919
Pt    1.4060000448    0.8117550035    4.5919780183    0.0000000000   -0.0000000000   -0.0000000000
Pt    1.3959070251    4.1076320905    9.1903801073   -0.0005596976   -0.0006991840    0.0005020584
Pt   -1.4060002425    2.4352640873    0.0000000000   -0.0000000000    0.0000000000   -0.0000000000
Pt   -1.4817364588    2.5059975924   13.7358586721    0.0006472687    0.0002338050    0.0003263859
Pt   -0.0000718956    0.0259541218    6.8855881408   -0.0002464640   -0.0002927497   -0.0000886910
Pt   -0.0369292267    3.2960559861   11.4547252738    0.0000061513   -0.0006062554    0.0002845492
Pt    2.8120008950    1.6235100071    2.2959890088   -0.0000000000   -0.0000000000    0.0000000000
 PRIMCOORD   8
   29  1
 O    1.3363984193   -0.0773389464   15.2276611209    0.0005718582   -0.0233442826   -0.0020961847
Pt    0.0000000000    0.0000000000    0.0000000000    0.0000000000   -0.0000000000   -0.0000000000
Pt   -0.1003157276    0.1734818735   13.8694944387    0.0002775428    0.0050193399    0.0002169170
Pt    0.0000000000    3.2470190927    4.5919789326   -0.0000000000    0.0000000000   -0.0000000000
Pt    2.8056490446    1.6675416711    9.1742987514   -0.0005416544   -0.0002599340   -0.0002607262
Pt    1.4059999952    4.0587730867    2.2959890090   -0.0000000000    0.0000000000    0.0000000000
Pt   -1.4062885676    2.4602186292    6.8867463225   -0.0001899664   -0.0001304736   -0.0002338921
Pt    1.3686333243    0.8724914684   11.4478437151   -0.0003008658    0.0005175725    0.0000301818
Pt    0.0000000000    1.6235100072    2.2959890090    0.0000000000   -0.0000000000    0.0000000000
Pt    2.8113028220    0.0273683934    6.8900512207   -0.0003304262   -0.0001883415   -0.0000426250
Pt    2.7777437801    3.3136318243   11.4491052424   -0.0000311324    0.0004455220   -0.0002330311
Pt    4.2180009386    0.8117550036    4.5919789326   -0.0000000000    0.0000000000   -0.0000000000
Pt   -1.4159142584    4.1008614702    9.1773495802   -0.0004951757   -0.0004015739   -0.0002387438
Pt    1.4060000457    2.4352640891    0.0000000000   -0.0000000000    0.0000000000   -0.0000000000
Pt    1.3347405187    2.5924134459   13.7241186131    0.0009026171    0.0033081560   -0.0006261763
Pt   -1.4060000457    4.0587730867    2.2959890090   -0.0000000000   -0.0000000000    0.0000000000
Pt    1.4054805669    2.4665540836    6.8618298186   -0.0002124569   -0.0002569130   -0.0008276812
Pt    4.1777090608    0.8489890853   11.5716243365   -0.0003529957    0.0015506242    0.0016323921
Pt    2.8120008929    3.2470190927    4.5919780187    0.0000000000    0.0000000000   -0.0000000000
Pt   -0.0130996668    1.6667973916    9.1728444786   -0.0004721348   -0.0003410633   -0.0002796801
Pt    2.8120009940    0.0000000000    0.0000000000   -0.0000000000   -0.0000000000   -0.0000000000
Pt    2.7707442585    0.1729075098   13.8639181459    0.0016009214    0.0052744308   -0.0000086311
Pt    1.4060000457    0.8117550036    4.5919780187   -0.0000000000   -0.0000000000   -0.0000000000
Pt    1.3957760080    4.1132120525    9.1846832180   -0.0004645879   -0.0001502590   -0.0005013141
Pt   -1.4060002474    2.4352640891    0.0000000000   -0.0000000000    0.0000000000   -0.0000000000
Pt   -1.4770368927    2.5631961626   13.7772104355    0.0008943755    0.0039876164    0.0033886224
Pt    0.0002577178    0.0267376547    6.8895458546   -0.0001326544   -0.0001243457   -0.0000456235
Pt   -0.0395698942    3.3108066498   11.4480499023   -0.0001570503    0.0005806071   -0.0001989010
Pt    2.8120008929    1.6235100072    2.2959890090   -0.0000000000   -0.0000000000    0.0000000000
 PRIMCOORD   9
   29  1
 O    1.3413969528   -0.4285275094   15.1076151927    0.0006163692   -0.0309766451   -0.0116348605
Pt    0.0000000000    0.0000000000    0.0000000000    0.0000000000   -0.0000000000   -0.0000000000
Pt   -0.1127291422    0.2224753135   13.8648583064   -0.0002807002    0.0048527126    0.0004287518
Pt    0.0000000000    3.2470190966    4.5919789297   -0.0000000000    0.0000000000   -0.0000000000
Pt    2.8065245480    1.6702322187    9.1787445580   -0.0003879580   -0.0001553811    0.0005823224
Pt    1.4059999950    4.0587730903    2.2959890094   -0.0000000000   -0.0000000000    0.0000000000
Pt   -1.4065073391    2.4594969201    6.8890790392   -0.0001858267   -0.0001849327   -0.0000204645
Pt    1.3692965304    0.8926889425   11.4530724184   -0.0001811989    0.0015782170    0.0004691140
Pt    0.0000000000    1.6235100075    2.2959890094    0.0000000000   -0.0000000000    0.0000000000
Pt    2.8115098937    0.0261536349    6.8920010524   -0.0002668876   -0.0003720905   -0.0001895914
Pt    2.7778301739    3.3355091293   11.4509050205   -0.0003963056    0.0017675522    0.0006445897
Pt    4.2180009360    0.8117550038    4.5919789297   -0.0000000000    0.0000000000   -0.0000000000
Pt   -1.4156611091    4.1055415812    9.1811037621   -0.0005420753   -0.0000750803    0.0005967361
Pt    1.4060000477    2.4352640929    0.0000000000   -0.0000000000    0.0000000000   -0.0000000000
Pt    1.3397575190    2.6176970327   13.7249238181    0.0009957526    0.0029759572    0.0004072429
Pt   -1.4060000477    4.0587730903    2.2959890094   -0.0000000000   -0.0000000000    0.0000000000
Pt    1.4054701856    2.4628215810    6.8590177971   -0.0001396678   -0.0005842647   -0.0007055304
Pt    4.1781947482    0.8977893188   11.5966992758   -0.0004341575    0.0047714405    0.0025655016
Pt    2.8120008883    3.2470190966    4.5919780194    0.0000000000    0.0000000000   -0.0000000000
Pt   -0.0132791803    1.6696972840    9.1762957803   -0.0007127717   -0.0001303112    0.0004209106
Pt    2.8120009937    0.0000000000    0.0000000000   -0.0000000000   -0.0000000000   -0.0000000000
Pt    2.7949205024    0.2222751425   13.8593878472    0.0020828369    0.0051540273    0.0000560509
Pt    1.4060000477    0.8117550038    4.5919780194    0.0000000000   -0.0000000000   -0.0000000000
Pt    1.3964309615    4.1172425639    9.1806466012   -0.0005663776   -0.0000644499   -0.0003465417
Pt   -1.4060002579    2.4352640929    0.0000000000   -0.0000000000    0.0000000000   -0.0000000000
Pt   -1.4710233232    2.6185864804   13.8502328940    0.0007604921    0.0056374478    0.0077106124
Pt    0.0000332540    0.0255485072    6.8917279741   -0.0002081955   -0.0002879365   -0.0002783608
Pt   -0.0361629265    3.3325203048   11.4481027775    0.0000901759    0.0017880165    0.0007008487
Pt    2.8120008883    1.6235100075    2.2959890094   -0.0000000000   -0.0000000000    0.0000000000
 PRIMCOORD  10
   29  1
 O    1.4059067470   -0.7156628010   15.0384909860    0.0000776794   -0.0002036971   -0.0002810582
Pt    0.0000000000    0.0000000000    0.0000000000    0.0000000000   -0.0000000000   -0.0000000000
Pt   -0.0449484410    0.1212309120   13.8582265050   -0.0001667010   -0.0002309645   -0.0001838227
Pt    0.0000000000    3.2470191540    4.5919788880   -0.0000000000    0.0000000000   -0.0000000000
Pt    2.8161962400    1.6859909210    9.1811108750    0.0002729162   -0.0001934876    0.0005124584
Pt    1.4059999920    4.0587731440    2.2959890150    0.0000000000   -0.0000000000    0.0000000000
Pt   -1.4060247570    2.4680452750    6.8936633930    0.0000929489   -0.0004628444   -0.0000996893
Pt    1.4059806920    0.8941802820   11.4572156930   -0.0002622406   -0.0004435534   -0.0003555432
Pt    0.0000000000    1.6235100120    2.2959890150    0.0000000000   -0.0000000000    0.0000000000
Pt    2.8123511200    0.0319972520    6.8935396270    0.0000542003   -0.0000956167   -0.0001548779
Pt    2.8134623650    3.3328977780   11.4564419720    0.0000083458    0.0001764351   -0.0000450374
Pt    4.2180008980    0.8117550060    4.5919788880   -0.0000000000    0.0000000000   -0.0000000000
Pt   -1.4059648950    4.1238820800    9.1895126290   -0.0001169338   -0.0004911343   -0.0005950750
Pt    1.4060000760    2.4352641480    0.0000000000   -0.0000000000    0.0000000000   -0.0000000000
Pt    1.4064113270    2.5304777850   13.7243614730   -0.0003018234    0.0001941795    0.0002744205
Pt   -1.4060000760    4.0587731440    2.2959890150   -0.0000000000   -0.0000000000    0.0000000000
Pt    1.4059179320    2.4660358860    6.8593366640   -0.0000615931   -0.0001462809    0.0001372303
Pt    4.2178097570    0.8997355140   11.5948029950    0.0002650897   -0.0002518741    0.0001575382
Pt    2.8120008220    3.2470191540    4.5919780310    0.0000000000    0.0000000000   -0.0000000000
Pt   -0.0040519160    1.6856255490    9.1814701260   -0.0003375307   -0.0001490513    0.0004408587
Pt    2.8120009900    0.0000000000    0.0000000000   -0.0000000000   -0.0000000000   -0.0000000000
Pt    2.8562249720    0.1217265900   13.8566949830    0.0001205665   -0.0005826681    0.0001996631
Pt    1.4060000760    0.8117550060    4.5919780310    0.0000000000   -0.0000000000   -0.0000000000
Pt    1.4057494180    4.1311029060    9.1816714180    0.0001499618   -0.0008151978   -0.0001399140
Pt   -1.4060004110    2.4352641480    0.0000000000   -0.0000000000    0.0000000000   -0.0000000000
Pt   -1.4063213970    2.4785595890   13.8603943460    0.0002291948   -0.0002444445   -0.0009597650
Pt   -0.0003945750    0.0312798340    6.8928891550   -0.0000710088    0.0001725562    0.0001150854
Pt   -0.0017958610    3.3344919810   11.4561676450    0.0000605341   -0.0005387051    0.0001607323
Pt    2.8120008220    1.6235100120    2.2959890150   -0.0000000000   -0.0000000000    0.0000000000
